# vtk DataFile Version 2.3
VTK-File generated by VTKWrite, IMS, Mathematica
ASCII 

DATASET UNSTRUCTURED_GRID
POINTS 315 float
0. 0. 0.
0.001 0. 0.
0.00005 0. 0.
0.0001 0. 0.
0.00015 0. 0.
0.0002 0. 0.
0.00025 0. 0.
0.0003 0. 0.
0.00035 0. 0.
0.0004 0. 0.
0.00045 0. 0.
0.0005 0. 0.
0.00055 0. 0.
0.0006 0. 0.
0.00065 0. 0.
0.0007 0. 0.
0.00075 0. 0.
0.0008 0. 0.
0.00085 0. 0.
0.0009 0. 0.
0.00095 0. 0.
0.001 0.0003 0.
0.001 0.00005 0.
0.001 0.0001 0.
0.001 0.00015 0.
0.001 0.0002 0.
0.001 0.00025 0.
0.0005 0.0003 0.
0.00095 0.0003 0.
0.0009 0.0003 0.
0.00085 0.0003 0.
0.0008 0.0003 0.
0.00075 0.0003 0.
0.0007 0.0003 0.
0.00065 0.0003 0.
0.0006 0.0003 0.
0.00055 0.0003 0.
0.0002 0.0003 0.
0.00025 0.0003 0.
0.0003 0.0003 0.
0.00035 0.0003 0.
0.0004 0.0003 0.
0.00045 0.0003 0.
0. 0.0003 0.
0.00015 0.0003 0.
0.0001 0.0003 0.
0.00005 0.0003 0.
0. 0.00025 0.
0. 0.0002 0.
0. 0.00015 0.
0. 0.0001 0.
0. 0.00005 0.
0.0000390093 0.0000723426 0.
0.0000434938 0.000123105 0.
0.0000434906 0.000175948 0.
0.0000383173 0.000226116 0.
0.000072673 0.000259237 0.
0.000123363 0.000255686 0.
0.000175632 0.000256142 0.
0.000522813 0.000256971 0.
0.000572485 0.000257012 0.
0.000622368 0.000257026 0.
0.000672328 0.000257031 0.
0.000722314 0.000257031 0.
0.000772581 0.000256966 0.
0.000824269 0.000256792 0.
0.000876212 0.000256562 0.
0.000926116 0.000261683 0.
0.000959164 0.0002274 0.
0.000955562 0.000176955 0.
0.000956699 0.000125 0.
0.000961683 0.0000738835 0.
0.000928311 0.0000403836 0.
0.000877151 0.0000436689 0.
0.000826282 0.0000431601 0.
0.00077636 0.0000430388 0.
0.000726574 0.0000430503 0.
0.000676698 0.0000430678 0.
0.000626748 0.0000430763 0.
0.000576774 0.0000430784 0.
0.000526832 0.0000430729 0.
0.000476981 0.0000430548 0.
0.000427214 0.0000430259 0.
0.00037732 0.0000430766 0.
0.000326297 0.0000433168 0.
0.000275638 0.0000434281 0.
0.000225 0.0000433013 0.
0.000174057 0.0000431019 0.
0.000122922 0.0000431915 0.
0.0000716273 0.0000385664 0.
0.000472842 0.000256967 0.
0.000422932 0.000256956 0.
0.000373081 0.000257035 0.
0.000324079 0.000257084 0.
0.000274911 0.00025741 0.
0.000226034 0.000257026 0.
0.0000920496 0.000091286 0.
0.0000886535 0.00014754 0.
0.00009253 0.000206469 0.
0.000151829 0.000211314 0.
0.000204405 0.000213402 0.
0.000494175 0.000214122 0.
0.000543657 0.000214186 0.
0.0005934 0.000214218 0.
0.000643304 0.000214229 0.
0.000693268 0.00021423 0.
0.000743419 0.000214166 0.
0.000794836 0.000213848 0.
0.00085 0.000213397 0.
0.000906157 0.00020759 0.
0.000910072 0.000148897 0.
0.000907649 0.000092016 0.
0.000852168 0.0000862441 0.
0.00080312 0.000085798 0.
0.000754003 0.0000859009 0.
0.000704363 0.0000859887 0.
0.000654508 0.0000860193 0.
0.000604569 0.0000860276 0.
0.000554658 0.0000860213 0.
0.000504909 0.0000859915 0.
0.000455407 0.00008593 0.
0.000405901 0.0000859137 0.
0.000355177 0.0000861649 0.
0.000302533 0.0000873479 0.
0.00025 0.0000866025 0.
0.000197653 0.0000857929 0.
0.000147061 0.0000856733 0.
0.00044454 0.000214076 0.
0.000394905 0.0002141 0.
0.000345938 0.000214218 0.
0.00029833 0.000215228 0.
0.000252057 0.000215451 0.
0.000126688 0.000124001 0.
0.000136124 0.000164634 0.
0.000185911 0.000169329 0.
0.000234963 0.000171148 0.
0.000464599 0.00017139 0.
0.000513783 0.000171491 0.
0.000563377 0.000171541 0.
0.000613214 0.00017156 0.
0.000663146 0.000171563 0.
0.000713094 0.000171536 0.
0.000763183 0.000171238 0.
0.000813553 0.000170434 0.
0.000862843 0.000166315 0.
0.000872117 0.00012465 0.
0.000828724 0.00012777 0.
0.000781811 0.000128561 0.
0.000733179 0.000128693 0.
0.000683495 0.00012879 0.
0.000633609 0.000128817 0.
0.000583716 0.000128815 0.
0.000533984 0.000128785 0.
0.000484554 0.000128715 0.
0.000435426 0.000128615 0.
0.000385644 0.00012858 0.
0.000334944 0.000128667 0.
0.000276415 0.00013609 0.
0.000219957 0.000129058 0.
0.000168995 0.000126667 0.
0.000415266 0.000171319 0.
0.000365665 0.000171323 0.
0.000317292 0.000171055 0.
0.000275811 0.000181794 0.
0.0000321273 0.0000321818 0.
0.000968173 0.0000328495 0.
0.00096715 0.000268173 0.
0.0000318275 0.00026715 0.
0. 0.0006 0.
0. 0.00035 0.
0. 0.0004 0.
0. 0.00045 0.
0. 0.0005 0.
0. 0.00055 0.
0.001 0.0006 0.
0.00005 0.0006 0.
0.0001 0.0006 0.
0.00015 0.0006 0.
0.0002 0.0006 0.
0.00025 0.0006 0.
0.0003 0.0006 0.
0.00035 0.0006 0.
0.0004 0.0006 0.
0.00045 0.0006 0.
0.0005 0.0006 0.
0.00055 0.0006 0.
0.0006 0.0006 0.
0.00065 0.0006 0.
0.0007 0.0006 0.
0.00075 0.0006 0.
0.0008 0.0006 0.
0.00085 0.0006 0.
0.0009 0.0006 0.
0.00095 0.0006 0.
0.001 0.00055 0.
0.001 0.0005 0.
0.001 0.00045 0.
0.001 0.0004 0.
0.001 0.00035 0.
0.000961683 0.000373884 0.
0.000956631 0.000423484 0.
0.000956526 0.000476019 0.
0.000961683 0.000526116 0.
0.000927358 0.000559284 0.
0.000876849 0.000555928 0.
0.000825723 0.00055708 0.
0.000776348 0.000557412 0.
0.000727053 0.000557211 0.
0.000677433 0.000557093 0.
0.000627603 0.000557052 0.
0.000577664 0.000557039 0.
0.000527689 0.000557036 0.
0.000477707 0.000557036 0.
0.000427715 0.000557036 0.
0.000377573 0.000557019 0.
0.000326322 0.000556863 0.
0.000275 0.000556699 0.
0.000224528 0.000557034 0.
0.000174395 0.000557147 0.
0.000123741 0.000556594 0.
0.0000738835 0.000561683 0.
0.0000407714 0.000527446 0.
0.0000443296 0.000477031 0.
0.0000433013 0.000425 0.
0.0000383173 0.000373884 0.
0.0000716986 0.000340391 0.
0.00012302 0.00034372 0.
0.000175 0.000343301 0.
0.000523538 0.000343119 0.
0.000573332 0.000343094 0.
0.000623261 0.000343087 0.
0.00067322 0.000343089 0.
0.00072327 0.000343163 0.
0.000774123 0.000343354 0.
0.000825 0.000343301 0.
0.000877031 0.000343715 0.
0.00092918 0.000340364 0.
0.000473437 0.000343107 0.
0.000423308 0.000343091 0.
0.000373259 0.00034299 0.
0.000324105 0.000342927 0.
0.000274743 0.000342654 0.
0.000225 0.000343301 0.
0.000908008 0.000392022 0.
0.000912271 0.000449032 0.
0.000907444 0.000506512 0.
0.00084993 0.000513706 0.
0.000802299 0.00051605 0.
0.000754777 0.000514829 0.
0.000705925 0.000514395 0.
0.000656476 0.000514286 0.
0.000606665 0.000514252 0.
0.000556733 0.000514242 0.
0.000506793 0.000514244 0.
0.000456837 0.000514248 0.
0.000406707 0.000514232 0.
0.000355418 0.000514071 0.
0.000302333 0.000513688 0.
0.000249 0.000513619 0.
0.000198363 0.000515826 0.
0.000149936 0.000514067 0.
0.0000935654 0.000507787 0.
0.0000887468 0.000450222 0.
0.0000922985 0.000392053 0.
0.00015 0.000386603 0.
0.000201316 0.000387515 0.
0.00049584 0.000386085 0.
0.000545635 0.00038606 0.
0.000595502 0.000386046 0.
0.00064542 0.000386047 0.
0.000695397 0.000386112 0.
0.000746306 0.000386394 0.
0.000798191 0.00038728 0.
0.00085 0.000386603 0.
0.000445671 0.000386064 0.
0.000395455 0.000385971 0.
0.000346105 0.000385812 0.
0.00029826 0.000384811 0.
0.00025109 0.000384886 0.
0.000871621 0.000426097 0.
0.000864807 0.000468095 0.
0.000824535 0.00048095 0.
0.000783038 0.000472501 0.
0.000734673 0.000471533 0.
0.000685889 0.000471527 0.
0.000636137 0.000471502 0.
0.000586747 0.000471567 0.
0.00053694 0.000471585 0.
0.000487075 0.000471599 0.
0.000437049 0.000471595 0.
0.00038627 0.000471498 0.
0.000335 0.00047134 0.
0.000275329 0.000464159 0.
0.000217427 0.000472745 0.
0.00017534 0.000481039 0.
0.000135807 0.000468547 0.
0.000128534 0.000426553 0.
0.000177151 0.000436037 0.
0.00023208 0.000429946 0.
0.00046679 0.000428883 0.
0.000516612 0.000428862 0.
0.00056646 0.000428846 0.
0.000616252 0.000428829 0.
0.000666003 0.000428838 0.
0.000716921 0.000429013 0.
0.000768608 0.00042939 0.
0.000822971 0.000435845 0.
0.000416349 0.000428817 0.
0.000366086 0.000428731 0.
0.000317338 0.000428951 0.
0.00027482 0.000418551 0.
0.000968173 0.00033285 0.
0.0000318275 0.00033285 0.
0.0000328495 0.000568173 0.
0.000968173 0.00056715 0.

CELLS 564 2256
3 144 146 145
3 144 143 146
3 134 158 135
3 134 159 158
3 165 72 20
3 165 71 72
3 166 68 26
3 166 67 68
3 167 56 46
3 167 55 56
3 164 52 51
3 164 89 52
3 55 167 47
3 167 43 47
3 46 43 167
3 67 166 28
3 166 21 28
3 26 21 166
3 71 165 22
3 165 1 22
3 20 1 165
3 89 164 2
3 164 0 2
3 51 0 164
3 162 163 157
3 161 162 156
3 160 161 155
3 158 157 135
3 157 156 162
3 156 155 161
3 155 154 160
3 154 153 136
3 153 152 137
3 152 151 138
3 151 150 139
3 150 149 140
3 149 148 141
3 148 147 142
3 147 146 143
3 143 142 147
3 142 141 148
3 141 140 149
3 140 139 150
3 139 138 151
3 138 137 152
3 137 136 153
3 136 160 154
3 163 135 157
3 134 133 159
3 133 132 159
3 162 130 163
3 161 129 162
3 160 128 161
3 126 159 132
3 125 158 159
3 124 157 158
3 123 156 157
3 122 155 156
3 121 154 155
3 120 153 154
3 119 152 153
3 118 151 152
3 117 150 151
3 116 149 150
3 115 148 149
3 114 147 148
3 113 146 147
3 112 145 146
3 110 144 145
3 108 143 144
3 107 142 143
3 106 141 142
3 105 140 141
3 104 139 140
3 103 138 139
3 102 137 138
3 101 136 137
3 136 127 160
3 131 135 163
3 100 134 135
3 99 133 134
3 97 132 133
3 130 131 163
3 129 130 162
3 128 129 161
3 127 128 160
3 96 126 132
3 126 125 159
3 125 124 158
3 124 123 157
3 123 122 156
3 122 121 155
3 121 120 154
3 120 119 153
3 119 118 152
3 118 117 151
3 117 116 150
3 116 115 149
3 115 114 148
3 114 113 147
3 113 112 146
3 112 111 145
3 111 110 145
3 110 109 144
3 109 108 144
3 108 107 143
3 107 106 142
3 106 105 141
3 105 104 140
3 104 103 139
3 103 102 138
3 102 101 137
3 101 127 136
3 131 100 135
3 100 99 134
3 99 98 133
3 98 97 133
3 97 96 132
3 130 94 131
3 129 93 130
3 128 92 129
3 127 91 128
3 88 126 96
3 87 125 126
3 86 124 125
3 85 123 124
3 84 122 123
3 83 121 122
3 82 120 121
3 81 119 120
3 80 118 119
3 79 117 118
3 78 116 117
3 77 115 116
3 76 114 115
3 75 113 114
3 74 112 113
3 73 111 112
3 70 110 111
3 69 109 110
3 66 108 109
3 65 107 108
3 64 106 107
3 63 105 106
3 62 104 105
3 61 103 104
3 60 102 103
3 59 101 102
3 101 90 127
3 95 100 131
3 58 99 100
3 57 98 99
3 54 97 98
3 53 96 97
3 94 95 131
3 93 94 130
3 92 93 129
3 91 92 128
3 90 91 127
3 89 88 96
3 88 87 126
3 87 86 125
3 86 85 124
3 85 84 123
3 84 83 122
3 83 82 121
3 82 81 120
3 81 80 119
3 80 79 118
3 79 78 117
3 78 77 116
3 77 76 115
3 76 75 114
3 75 74 113
3 74 73 112
3 73 72 111
3 72 71 111
3 71 70 111
3 70 69 110
3 69 68 109
3 68 67 109
3 67 66 109
3 66 65 108
3 65 64 107
3 64 63 106
3 63 62 105
3 62 61 104
3 61 60 103
3 60 59 102
3 59 90 101
3 95 58 100
3 58 57 99
3 57 56 98
3 56 55 98
3 55 54 98
3 54 53 97
3 53 52 96
3 52 89 96
3 94 38 95
3 93 39 94
3 92 40 93
3 91 41 92
3 90 42 91
3 3 88 89
3 4 87 88
3 5 86 87
3 6 85 86
3 7 84 85
3 8 83 84
3 9 82 83
3 10 81 82
3 11 80 81
3 12 79 80
3 13 78 79
3 14 77 78
3 15 76 77
3 16 75 76
3 17 74 75
3 18 73 74
3 19 72 73
3 23 70 71
3 24 69 70
3 25 68 69
3 29 66 67
3 30 65 66
3 31 64 65
3 32 63 64
3 33 62 63
3 34 61 62
3 35 60 61
3 36 59 60
3 59 27 90
3 37 58 95
3 44 57 58
3 45 56 57
3 48 54 55
3 49 53 54
3 50 52 53
3 38 37 95
3 39 38 94
3 40 39 93
3 41 40 92
3 42 41 91
3 27 42 90
3 2 3 89
3 3 4 88
3 4 5 87
3 5 6 86
3 6 7 85
3 7 8 84
3 8 9 83
3 9 10 82
3 10 11 81
3 11 12 80
3 12 13 79
3 13 14 78
3 14 15 77
3 15 16 76
3 16 17 75
3 17 18 74
3 18 19 73
3 19 20 72
3 22 23 71
3 23 24 70
3 24 25 69
3 25 26 68
3 28 29 67
3 29 30 66
3 30 31 65
3 31 32 64
3 32 33 63
3 33 34 62
3 34 35 61
3 35 36 60
3 36 27 59
3 37 44 58
3 44 45 57
3 45 46 56
3 47 48 55
3 48 49 54
3 49 50 53
3 50 51 52
3 282 306 281
3 305 306 282
3 297 295 296
3 294 295 297
3 305 283 304
3 282 283 305
3 225 312 46
3 224 312 225
3 221 313 173
3 220 313 221
3 203 314 193
3 202 314 203
3 236 311 199
3 28 311 236
3 314 202 194
3 174 314 194
3 174 193 314
3 313 220 175
3 168 313 175
3 168 173 313
3 312 224 169
3 43 312 169
3 43 46 312
3 311 198 199
3 21 311 28
3 21 198 311
3 310 309 292
3 309 308 291
3 308 307 290
3 303 304 284
3 302 303 285
3 301 302 286
3 300 301 287
3 299 300 288
3 307 299 289
3 298 310 292
3 297 298 293
3 293 294 297
3 292 293 298
3 291 292 309
3 290 291 308
3 289 290 307
3 288 289 299
3 287 288 300
3 286 287 301
3 285 286 302
3 284 285 303
3 283 284 304
3 280 281 306
3 279 280 306
3 277 309 310
3 276 308 309
3 275 307 308
3 306 273 279
3 305 272 306
3 304 271 305
3 303 270 304
3 302 269 303
3 301 268 302
3 300 267 301
3 299 266 300
3 274 299 307
3 298 278 310
3 297 265 298
3 296 264 297
3 295 262 296
3 294 260 295
3 293 259 294
3 292 258 293
3 291 257 292
3 290 256 291
3 289 255 290
3 288 254 289
3 287 253 288
3 286 252 287
3 285 251 286
3 284 250 285
3 283 249 284
3 282 248 283
3 281 247 282
3 280 246 281
3 279 244 280
3 278 277 310
3 277 276 309
3 276 275 308
3 275 274 307
3 273 243 279
3 272 273 306
3 271 272 305
3 270 271 304
3 269 270 303
3 268 269 302
3 267 268 301
3 266 267 300
3 274 266 299
3 265 278 298
3 264 265 297
3 263 264 296
3 262 263 296
3 261 262 295
3 260 261 295
3 259 260 294
3 258 259 293
3 257 258 292
3 256 257 291
3 255 256 290
3 254 255 289
3 253 254 288
3 252 253 287
3 251 252 286
3 250 251 285
3 249 250 284
3 248 249 283
3 247 248 282
3 246 247 281
3 245 246 280
3 244 245 280
3 243 244 279
3 241 277 278
3 240 276 277
3 239 275 276
3 238 274 275
3 273 235 243
3 272 234 273
3 271 233 272
3 270 232 271
3 269 231 270
3 268 230 269
3 267 229 268
3 266 228 267
3 237 266 274
3 265 242 278
3 264 227 265
3 263 226 264
3 262 223 263
3 261 222 262
3 260 219 261
3 259 218 260
3 258 217 259
3 257 216 258
3 256 215 257
3 255 214 256
3 254 213 255
3 253 212 254
3 252 211 253
3 251 210 252
3 250 209 251
3 249 208 250
3 248 207 249
3 247 206 248
3 246 205 247
3 245 204 246
3 244 201 245
3 243 200 244
3 242 241 278
3 241 240 277
3 240 239 276
3 239 238 275
3 238 237 274
3 236 199 243
3 235 236 243
3 234 235 273
3 233 234 272
3 232 233 271
3 231 232 270
3 230 231 269
3 229 230 268
3 228 229 267
3 237 228 266
3 227 242 265
3 226 227 264
3 225 226 263
3 224 225 263
3 223 224 263
3 222 223 262
3 221 222 261
3 220 221 261
3 219 220 261
3 218 219 260
3 217 218 259
3 216 217 258
3 215 216 257
3 214 215 256
3 213 214 255
3 212 213 254
3 211 212 253
3 210 211 252
3 209 210 251
3 208 209 250
3 207 208 249
3 206 207 248
3 205 206 247
3 204 205 246
3 203 204 245
3 202 203 245
3 201 202 245
3 200 201 244
3 199 200 243
3 38 241 242
3 39 240 241
3 40 239 240
3 41 238 239
3 42 237 238
3 235 29 236
3 234 30 235
3 233 31 234
3 232 32 233
3 231 33 232
3 230 34 231
3 229 35 230
3 228 36 229
3 27 228 237
3 227 37 242
3 226 44 227
3 225 45 226
3 223 170 224
3 222 171 223
3 221 172 222
3 219 176 220
3 218 177 219
3 217 178 218
3 216 179 217
3 215 180 216
3 214 181 215
3 213 182 214
3 212 183 213
3 211 184 212
3 210 185 211
3 209 186 210
3 208 187 209
3 207 188 208
3 206 189 207
3 205 190 206
3 204 191 205
3 203 192 204
3 201 195 202
3 200 196 201
3 199 197 200
3 37 38 242
3 38 39 241
3 39 40 240
3 40 41 239
3 41 42 238
3 42 27 237
3 29 28 236
3 30 29 235
3 31 30 234
3 32 31 233
3 33 32 232
3 34 33 231
3 35 34 230
3 36 35 229
3 27 36 228
3 44 37 227
3 45 44 226
3 46 45 225
3 170 169 224
3 171 170 223
3 172 171 222
3 173 172 221
3 176 175 220
3 177 176 219
3 178 177 218
3 179 178 217
3 180 179 216
3 181 180 215
3 182 181 214
3 183 182 213
3 184 183 212
3 185 184 211
3 186 185 210
3 187 186 209
3 188 187 208
3 189 188 207
3 190 189 206
3 191 190 205
3 192 191 204
3 193 192 203
3 195 194 202
3 196 195 201
3 197 196 200
3 198 197 199

CELL_TYPES 564
5
5
5
5
5
5
5
5
5
5
5
5
5
5
5
5
5
5
5
5
5
5
5
5
5
5
5
5
5
5
5
5
5
5
5
5
5
5
5
5
5
5
5
5
5
5
5
5
5
5
5
5
5
5
5
5
5
5
5
5
5
5
5
5
5
5
5
5
5
5
5
5
5
5
5
5
5
5
5
5
5
5
5
5
5
5
5
5
5
5
5
5
5
5
5
5
5
5
5
5
5
5
5
5
5
5
5
5
5
5
5
5
5
5
5
5
5
5
5
5
5
5
5
5
5
5
5
5
5
5
5
5
5
5
5
5
5
5
5
5
5
5
5
5
5
5
5
5
5
5
5
5
5
5
5
5
5
5
5
5
5
5
5
5
5
5
5
5
5
5
5
5
5
5
5
5
5
5
5
5
5
5
5
5
5
5
5
5
5
5
5
5
5
5
5
5
5
5
5
5
5
5
5
5
5
5
5
5
5
5
5
5
5
5
5
5
5
5
5
5
5
5
5
5
5
5
5
5
5
5
5
5
5
5
5
5
5
5
5
5
5
5
5
5
5
5
5
5
5
5
5
5
5
5
5
5
5
5
5
5
5
5
5
5
5
5
5
5
5
5
5
5
5
5
5
5
5
5
5
5
5
5
5
5
5
5
5
5
5
5
5
5
5
5
5
5
5
5
5
5
5
5
5
5
5
5
5
5
5
5
5
5
5
5
5
5
5
5
5
5
5
5
5
5
5
5
5
5
5
5
5
5
5
5
5
5
5
5
5
5
5
5
5
5
5
5
5
5
5
5
5
5
5
5
5
5
5
5
5
5
5
5
5
5
5
5
5
5
5
5
5
5
5
5
5
5
5
5
5
5
5
5
5
5
5
5
5
5
5
5
5
5
5
5
5
5
5
5
5
5
5
5
5
5
5
5
5
5
5
5
5
5
5
5
5
5
5
5
5
5
5
5
5
5
5
5
5
5
5
5
5
5
5
5
5
5
5
5
5
5
5
5
5
5
5
5
5
5
5
5
5
5
5
5
5
5
5
5
5
5
5
5
5
5
5
5
5
5
5
5
5
5
5
5
5
5
5
5
5
5
5
5
5
5
5
5
5
5
5
5
5
5
5
5
5
5
5
5
5
5
5
5
5
5
5
5
5
5
5
5
5
5
5
5
5
5
5
5
5
5
5
5
5
5
5
5
5
5
5
5
5
5
5
5
5
5
5
5
5
5
5
5
5
5
5
5
5
5
5
5
5
5
5
5
5
5
5
5
5
5
5
5
5
5

POINT_DATA 315
SCALARS Temperature1 float  1 
LOOKUP_TABLE default 
0.
0.
0.
0.
0.
0.
0.
0.
0.
0.
0.
0.
0.
0.
0.
0.
0.
0.
0.
0.
0.
-0.00000000000000000000840913
-0.00000000000000000000225681
-0.00000000000000000000435339
-0.00000000000000000000609505
-0.00000000000000000000735966
-0.000000000000000000008072
-0.00000000000000000000427217
-0.00000000000000000000665735
-0.00000000000000000000331116
0.0000000000000000000000650788
0.00000000000000000000298555
0.00000000000000000000522969
0.00000000000000000000660236
0.00000000000000000000683851
0.00000000000000000000548163
0.00000000000000000000150579
-0.00000000000000000000625943
-0.00000000000000000000926649
-0.0000000000000000000100243
-0.00000000000000000000964725
-0.00000000000000000000864944
-0.00000000000000000000725382
0.
-0.00000000000000000000172416
-0.000000000000000000000112672
-0.000000000000000000000002024
0.
0.
0.
0.
0.
0.00000000000000000000000144876
0.00000000000000000000000312687
0.00000000000000000000000338956
0.00000000000000000000000161071
-0.0000000000000000000000134597
-0.000000000000000000000229038
-0.00000000000000000000216055
0.000000000000000000000657461
0.00000000000000000000435628
0.000000000000000000006279
0.0000000000000000000066714
0.00000000000000000000587285
0.00000000000000000000412492
0.00000000000000000000153322
-0.00000000000000000000168398
-0.00000000000000000000504247
-0.00000000000000000000676448
-0.00000000000000000000579094
-0.00000000000000000000452265
-0.00000000000000000000291811
-0.00000000000000000000122751
-0.000000000000000000000586554
0.0000000000000000000000564255
0.000000000000000000000566743
0.000000000000000000000927828
0.00000000000000000000113469
0.00000000000000000000119597
0.00000000000000000000113585
0.000000000000000000000989532
0.00000000000000000000079545
0.000000000000000000000588999
0.000000000000000000000399325
0.00000000000000000000024362
0.000000000000000000000133096
0.0000000000000000000000649531
0.0000000000000000000000278767
0.000000000000000000000010448
0.00000000000000000000000248839
-0.00000000000000000000247495
-0.00000000000000000000399603
-0.00000000000000000000514321
-0.00000000000000000000587042
-0.00000000000000000000592775
-0.00000000000000000000482446
0.0000000000000000000000103132
0.0000000000000000000000121505
-0.00000000000000000000000107231
-0.000000000000000000000234005
-0.000000000000000000000881243
0.00000000000000000000224937
0.0000000000000000000038838
0.00000000000000000000537188
0.0000000000000000000060337
0.00000000000000000000575632
0.00000000000000000000461298
0.00000000000000000000266685
-0.000000000000000000000146476
-0.00000000000000000000350231
-0.00000000000000000000312047
-0.00000000000000000000207069
-0.000000000000000000000443188
0.000000000000000000000691844
0.0000000000000000000015644
0.00000000000000000000214706
0.00000000000000000000242511
0.00000000000000000000242442
0.00000000000000000000220574
0.00000000000000000000184871
0.0000000000000000000014307
0.00000000000000000000101564
0.000000000000000000000647872
0.000000000000000000000363385
0.000000000000000000000175555
0.0000000000000000000000768354
0.0000000000000000000000312767
0.000000000000000000000929293
-0.000000000000000000000160549
-0.00000000000000000000100985
-0.00000000000000000000154249
-0.00000000000000000000151124
0.0000000000000000000000243947
0.00000000000000000000000133576
-0.0000000000000000000000586634
-0.000000000000000000000113556
0.00000000000000000000247441
0.00000000000000000000341952
0.00000000000000000000431806
0.00000000000000000000492431
0.00000000000000000000497818
0.00000000000000000000438422
0.0000000000000000000031469
0.00000000000000000000132555
-0.000000000000000000000911063
-0.00000000000000000000124057
0.000000000000000000000351842
0.00000000000000000000179384
0.00000000000000000000289076
0.00000000000000000000356184
0.000000000000000000003773
0.00000000000000000000357764
0.00000000000000000000309792
0.0000000000000000000024747
0.00000000000000000000181588
0.00000000000000000000119278
0.000000000000000000000676949
0.000000000000000000000272852
0.000000000000000000000106209
0.000000000000000000000046954
0.00000000000000000000157285
0.000000000000000000000785866
0.000000000000000000000234689
-0.000000000000000000000272669
0.000000000000000000000000512776
-0.00000000000000000000137736
-0.00000000000000000000741268
0.000000000000000000000000281485
0.
0.
0.
0.
0.
0.
0.
0.
0.
0.
0.
0.
0.
0.
0.
0.
0.
0.
0.
0.
0.
0.
0.
0.
0.
0.
-0.00000000000000000000225994
-0.00000000000000000000435395
-0.00000000000000000000609494
-0.00000000000000000000735697
-0.00000000000000000000807034
-0.00000000000000000000685184
-0.00000000000000000000581988
-0.00000000000000000000448502
-0.0000000000000000000029233
-0.00000000000000000000122949
-0.000000000000000000000586337
0.0000000000000000000000597615
0.000000000000000000000557192
0.000000000000000000000919634
0.00000000000000000000112944
0.00000000000000000000119352
0.00000000000000000000113574
0.000000000000000000000990995
0.000000000000000000000797478
0.000000000000000000000590626
0.000000000000000000000399345
0.00000000000000000000024211
0.000000000000000000000131135
0.0000000000000000000000632644
0.0000000000000000000000277823
0.000000000000000000000010524
0.00000000000000000000000252413
0.00000000000000000000000152106
0.00000000000000000000000313304
0.00000000000000000000000347267
0.00000000000000000000000176294
-0.0000000000000000000000120508
-0.000000000000000000000227899
-0.00000000000000000000216247
0.000000000000000000000701626
0.00000000000000000000439391
0.00000000000000000000629254
0.00000000000000000000666384
0.00000000000000000000584647
0.00000000000000000000405045
0.00000000000000000000149148
-0.00000000000000000000173248
-0.00000000000000000000522884
-0.00000000000000000000244385
-0.00000000000000000000397638
-0.00000000000000000000513295
-0.00000000000000000000586619
-0.0000000000000000000059171
-0.00000000000000000000476767
-0.00000000000000000000361403
-0.00000000000000000000325189
-0.00000000000000000000211209
-0.000000000000000000000377621
0.000000000000000000000676232
0.00000000000000000000153811
0.00000000000000000000212413
0.00000000000000000000241121
0.000000000000000000002422
0.00000000000000000000221234
0.00000000000000000000186009
0.00000000000000000000144141
0.00000000000000000000102131
0.000000000000000000000647695
0.000000000000000000000356909
0.000000000000000000000171066
0.0000000000000000000000754096
0.0000000000000000000000334531
0.0000000000000000000000100266
0.0000000000000000000000112343
0.0000000000000000000000000648326
-0.000000000000000000000243466
-0.000000000000000000000804274
0.00000000000000000000230963
0.00000000000000000000394978
0.00000000000000000000540817
0.00000000000000000000603034
0.00000000000000000000571682
0.00000000000000000000451068
0.00000000000000000000248769
-0.000000000000000000000135121
0.000000000000000000000967084
-0.000000000000000000000143341
-0.00000000000000000000100532
-0.00000000000000000000154304
-0.000000000000000000001493
-0.00000000000000000000138427
-0.00000000000000000000101137
0.00000000000000000000041217
0.00000000000000000000174256
0.00000000000000000000286127
0.00000000000000000000353043
0.0000000000000000000037625
0.00000000000000000000358731
0.00000000000000000000312424
0.00000000000000000000250501
0.00000000000000000000183727
0.00000000000000000000120099
0.000000000000000000000677418
0.000000000000000000000265772
0.0000000000000000000000999021
0.0000000000000000000000547355
0.0000000000000000000000282005
-0.0000000000000000000000102924
-0.0000000000000000000000214348
-0.000000000000000000000106565
0.00000000000000000000251962
0.00000000000000000000347309
0.00000000000000000000435812
0.00000000000000000000493052
0.00000000000000000000494937
0.00000000000000000000429689
0.00000000000000000000296297
0.000000000000000000000856086
0.0000000000000000000015954
0.000000000000000000000793534
0.000000000000000000000234073
-0.000000000000000000000273013
-0.00000000000000000000744593
0.000000000000000000000000335911
0.000000000000000000000000504675
-0.00000000000000000000137955

SCALARS Temperature2 float  1 
LOOKUP_TABLE default 
0.
0.
0.
0.
0.
0.
0.
0.
0.
0.
0.
0.
0.
0.
0.
0.
0.
0.
0.
0.
0.
0.0234705
0.0326243
0.0510731
0.0528611
0.0431224
0.0336249
27.5907
0.0886717
0.196255
0.353639
0.763478
1.71675
3.54397
6.61948
11.4518
19.0674
12.355
19.9577
24.7541
27.8372
29.6891
30.3473
0.
3.70151
0.472792
0.0571363
0.
0.
0.
0.
0.
0.00178392
0.00631117
0.0131226
0.0216733
0.136789
0.856452
4.96855
18.873
12.7928
7.9582
4.54975
2.3511
1.08483
0.472313
0.24213
0.138511
0.0752564
0.0845279
0.0781295
0.054286
0.0406949
0.0412233
0.0265017
0.0277131
0.0643069
0.139687
0.238416
0.3329
0.397971
0.421157
0.40128
0.344422
0.261482
0.169111
0.0918457
0.0401591
0.0137577
0.00278137
22.5043
22.5494
21.3527
19.2217
15.989
11.2721
0.0188581
0.0483729
0.13085
1.0759
3.40384
11.9408
10.1008
7.25743
4.60977
2.60223
1.29245
0.569713
0.266922
0.164778
0.127846
0.0927813
0.0724645
0.073046
0.13915
0.301588
0.550815
0.832347
1.06725
1.19616
1.20408
1.10395
0.914517
0.671134
0.389543
0.186249
0.0697369
12.2773
11.6438
10.3829
8.70899
6.33366
0.104168
0.294148
0.975566
2.13719
6.20123
5.92962
4.99166
3.6244
2.28518
1.24853
0.594131
0.276655
0.170248
0.115423
0.132735
0.227719
0.481792
0.939045
1.55683
2.20058
2.68074
2.87969
2.80699
2.5121
2.02737
1.55485
0.709519
0.282362
5.93301
5.25772
4.22138
4.04932
0.000499524
0.0253442
0.0603611
0.0256392
0.
0.
0.
0.
0.
0.
0.
0.
0.
0.
0.
0.
0.
0.
0.
0.
0.
0.
0.
0.
0.
0.
0.
0.
0.
0.
0.0299007
0.0472233
0.0490766
0.0404489
0.0321518
0.0698039
0.0806133
0.0748518
0.0510534
0.0395688
0.0408664
0.02622
0.0276599
0.0638003
0.13836
0.236484
0.330932
0.396541
0.42071
0.401949
0.345094
0.260777
0.168343
0.0902117
0.0401422
0.0138361
0.00276889
0.00192848
0.00683657
0.0128308
0.0215946
0.129907
0.853023
4.96096
18.8074
12.7107
7.89297
4.50521
2.31993
1.06106
0.468203
0.240849
0.131934
22.4778
22.542
21.352
19.222
15.9659
11.1227
0.161843
0.125892
0.0917207
0.0719921
0.0711881
0.136825
0.294681
0.538612
0.817908
1.05481
1.18877
1.20255
1.10582
0.915082
0.656335
0.384978
0.180142
0.0753788
0.018174
0.0565132
0.131309
1.08902
3.15764
11.8712
9.97758
7.13258
4.51174
2.53223
1.23748
0.539409
0.268761
12.2587
11.6466
10.3908
8.71275
6.25164
0.172715
0.124845
0.123127
0.222654
0.472294
0.913005
1.51931
2.15274
2.64303
2.86127
2.80503
2.51849
2.03413
1.53799
0.660948
0.271452
0.137489
0.298878
0.703772
2.0214
6.17529
5.86064
4.89128
3.52906
2.21229
1.18384
0.544235
0.232667
5.93456
5.26679
4.2313
4.00537
0.0581039
0.0256244
0.000495833
0.0235886

SCALARS Temperature3 float  1 
LOOKUP_TABLE default 
0.
0.
0.
0.
0.
0.
0.
0.
0.
0.
0.
0.
0.
0.
0.
0.
0.
0.
0.
0.
0.
1.34822
0.238025
0.498432
0.784802
1.06305
1.28078
38.8558
1.77015
2.8576
4.55003
6.89642
9.92666
13.6868
18.2741
23.9358
31.4369
13.193
21.8962
28.3506
33.4072
37.3412
39.9639
0.
4.06225
0.600258
0.0834362
0.
0.
0.
0.
0.
0.00438197
0.01307
0.0234829
0.0341884
0.191251
1.06526
5.55259
30.1408
24.6775
19.5451
15.0653
11.2389
8.02996
5.39563
3.41151
2.14911
1.43366
1.16034
0.780371
0.421475
0.297639
0.513225
0.764336
1.06393
1.37171
1.63994
1.81938
1.87246
1.7884
1.58705
1.30675
0.991896
0.680165
0.409936
0.213672
0.0928008
0.0328998
0.00711452
32.435
30.737
27.5982
23.5762
18.6558
12.6429
0.04025
0.086282
0.195549
1.38728
4.2586
20.857
19.9368
17.3566
14.2523
11.1683
8.34209
5.85366
3.74252
2.16215
1.45506
0.852767
1.30799
1.89846
2.57123
3.24816
3.82272
4.18537
4.25183
4.00649
3.51015
2.85745
2.13105
1.42785
0.785985
0.367271
0.140557
19.8109
17.5632
14.6827
11.5849
8.0469
0.18384
0.444102
1.40494
3.09315
12.2473
12.9785
12.6537
11.3729
9.56643
7.59135
5.67532
3.97473
2.56981
1.68917
2.50862
3.53572
4.70143
5.89711
6.93159
7.59927
7.71833
7.25597
6.34814
5.15636
3.81728
2.63813
1.1824
0.476107
10.7596
8.81178
6.61568
5.8098
0.00135863
0.172946
1.5121
0.0386376
0.
0.
0.
0.
0.
0.
0.
0.
0.
0.
0.
0.
0.
0.
0.
0.
0.
0.
0.
0.
0.
0.
0.
0.
0.
0.
0.241389
0.504559
0.790732
1.06823
1.284
1.40736
1.15451
0.781873
0.426314
0.30505
0.5226
0.762845
1.05216
1.36184
1.63218
1.81377
1.86945
1.78807
1.58888
1.30975
0.99293
0.6773
0.406418
0.209222
0.0926611
0.0331082
0.00714065
0.00468208
0.013853
0.0231352
0.034242
0.18241
1.06123
5.54006
30.0888
24.5955
19.4648
14.9945
11.1711
7.9413
5.36285
3.38367
2.08543
32.4283
30.7463
27.6072
23.58
18.6295
12.4696
2.12928
1.46077
0.87464
1.33893
1.85977
2.53992
3.21537
3.79084
4.16219
4.24171
4.00946
3.521
2.86716
2.1317
1.39824
0.773847
0.356547
0.151494
0.0389025
0.0973835
0.197404
1.39745
3.9615
20.8204
19.8261
17.2139
14.1086
11.0307
8.17645
5.68371
3.74764
19.8262
17.5866
14.6992
11.5895
7.94075
2.50607
1.91484
2.38826
3.48056
4.66225
5.82997
6.86745
7.54178
7.69464
7.26552
6.37125
5.17572
3.82781
2.60458
1.1026
0.46875
0.238012
0.438949
1.03556
2.9262
12.2626
12.9392
12.5528
11.2431
9.43352
7.41877
5.45815
3.53856
10.7887
8.8342
6.62979
5.74267
1.5026
0.0386793
0.00134334
0.175225

SCALARS Temperature4 float  1 
LOOKUP_TABLE default 
0.
0.
0.
0.
0.
0.
0.
0.
0.
0.
0.
0.
0.
0.
0.
0.
0.
0.
0.
0.
0.
6.18156
1.37801
2.73347
4.02573
5.13807
5.93646
42.9616
7.13031
9.24875
11.8573
14.8155
18.0758
21.6476
25.6325
30.3368
36.6886
13.3917
22.2454
28.9933
34.5885
39.3124
42.9395
0.
4.13
0.617698
0.0883282
0.
0.
0.
0.
0.
0.00537228
0.015311
0.0263757
0.0369584
0.200577
1.09235
5.64319
34.5846
30.2628
26.1844
22.4859
19.0699
15.8651
12.8164
10.0507
7.85914
6.18518
5.20073
3.76297
2.20082
1.39574
1.8978
2.26752
2.62381
2.91188
3.0839
3.10346
2.95388
2.64872
2.23103
1.75762
1.28503
0.854074
0.503498
0.258998
0.112161
0.0401055
0.00881666
35.7498
33.0107
29.0125
24.3673
19.054
12.846
0.0476353
0.0970551
0.209103
1.43388
4.37402
24.2697
24.3898
22.8224
20.5711
18.063
15.4681
12.8315
10.1499
7.57831
5.55905
3.49796
4.16653
4.94861
5.68045
6.25947
6.58994
6.59558